
Host: iZbp1fiaizyql9luphff4fZ

Timers On : Wed Mar 15 18:54:45 2023
Timers Off: Wed Mar 15 18:54:57 2023

Wall Time:       11.97 seconds

                                                       Time (seconds)
Module                                       User      System        Wall        Calls

--------------------------------------------------------------------------------------

**************************************************************************************
